ITEM: TIMESTEP
142
ITEM: NUMBER OF ATOMS
36767
ITEM: BOX BOUNDS pp pp pp
7.0444096910528287e+01 7.2955590308769479e+02
7.0444096910528287e+01 7.2955590308769479e+02
0.0000000000000000e+00 2.0000000000000000e+03
ITEM: ATOMS id type xs ys zs
1 1 0.542183 0.0333907 0.364153
2 2 0.551771 0.0375147 0.36363
3 3 0.561859 0.0304788 0.363355
4 4 0.565907 0.0358093 0.361728
5 5 0.569018 0.0445215 0.360825
6 6 0.571383 0.0583725 0.359042
7 7 0.577394 0.0604846 0.361311
8 8 0.561015 0.0520894 0.362427
9 9 0.544144 0.0518031 0.361823
10 10 0.532072 0.0529237 0.359729
11 11 0.534357 0.0436202 0.359549
12 12 0.542267 0.0357289 0.359567
13 13 0.545378 0.0329809 0.35675
14 14 0.541783 0.0430862 0.354735
15 15 0.540899 0.0559677 0.353292
16 16 0.54343 0.0665389 0.353952
17 17 0.5489 0.0633371 0.357133
18 18 0.553192 0.0505385 0.357209
19 19 0.559372 0.0350026 0.357605
20 20 0.571059 0.039702 0.356819
21 21 0.567569 0.0502859 0.355541
22 22 0.562629 0.0459999 0.353131
23 23 0.556753 0.0413436 0.351271
24 24 0.550961 0.0357592 0.34829
25 25 0.550786 0.0447565 0.343663
26 26 0.55061 0.0397269 0.339566
27 27 0.543114 0.0395248 0.337298
28 28 0.540927 0.0419678 0.334749
29 29 0.537282 0.0380532 0.331989
30 30 0.539496 0.0333938 0.329222
31 31 0.53737 0.0276284 0.32709
32 32 0.544716 0.0231859 0.324367
33 33 0.544068 0.0108724 0.321385
34 34 0.553741 0.00470296 0.319777
35 35 0.544908 0.997751 0.322024
36 36 0.558243 0.995245 0.325907
37 37 0.56471 0.991459 0.323435
38 38 0.571749 0.99752 0.319514
39 39 0.569497 0.0117055 0.316932
40 40 0.557046 0.0052346 0.31939
41 41 0.556952 0.00744573 0.325417
42 42 0.57191 0.0085328 0.32369
43 43 0.581217 0.0202271 0.32052
44 44 0.568475 0.0294215 0.323299
45 45 0.551448 0.0389901 0.326137
46 46 0.546521 0.0365654 0.331673
47 47 0.542132 0.0285156 0.335443
48 48 0.538218 0.017508 0.334992
49 49 0.54463 0.0240367 0.331324
50 50 0.556702 0.0262296 0.32807
51 51 0.561561 0.0183362 0.330483
52 52 0.549342 0.0112696 0.330227
53 53 0.53771 0.0119619 0.328466
54 54 0.553611 0.0195936 0.323343
55 55 0.564279 0.0271773 0.318226
56 56 0.578792 0.0253647 0.315582
57 57 0.589841 0.0126466 0.311296
58 58 0.607813 0.0157483 0.308664
59 59 0.602372 0.010465 0.31319
60 60 0.590052 0.00496533 0.316707
61 61 0.58988 0.991696 0.314291
62 62 0.593335 0.999455 0.309586
63 63 0.602222 0.00635978 0.305474
64 64 0.605247 0.993264 0.305356
65 65 0.603692 0.98636 0.309364
66 66 0.612205 0.996011 0.309466
67 67 0.619117 0.00792034 0.307433
68 68 0.627361 0.0117982 0.304948
69 69 0.625557 0.00909142 0.301164
70 70 0.622134 0.0130238 0.29783
71 71 0.615789 0.0135985 0.295649
72 72 0.602795 0.0089385 0.296018
73 73 0.592468 0.00426467 0.299616
74 74 0.58855 0.990038 0.301273
75 75 0.577602 0.979978 0.299857
76 76 0.586004 0.985061 0.305232
77 77 0.582478 0.967711 0.302778
78 78 0.582779 0.97733 0.300545
79 79 0.593021 0.975619 0.301615
80 80 0.595106 0.965782 0.301802
81 81 0.60463 0.95769 0.299083
82 82 0.606275 0.950568 0.296344
83 83 0.59631 0.950764 0.292522
84 84 0.603975 0.95001 0.291373
85 85 0.610132 0.956401 0.292688
86 86 0.602416 0.963849 0.295049
87 87 0.582829 0.968437 0.296512
88 1 0.55335 0.0231705 0.367086
89 2 0.554982 0.0213112 0.36358
90 3 0.545521 0.0230425 0.360987
91 4 0.541334 0.016206 0.361721
92 5 0.538444 0.0087403 0.363511
93 6 0.536732 0.996471 0.366321
94 7 0.530858 0.00088133 0.36825
95 8 0.546978 0.00844052 0.366356
96 9 0.563814 0.00786139 0.365763
97 10 0.576108 0.00366406 0.364361
98 11 0.572651 0.00908687 0.362007
99 12 0.563809 0.0134133 0.360171
100 13 0.560695 0.00811449 0.357781
101 14 0.565868 0.997479 0.358887
102 15 0.568483 0.985881 0.36103
103 16 0.567461 0.980138 0.364127
104 17 0.561373 0.98895 0.365533
105 18 0.555195 0.99705 0.362659
106 19 0.547301 0.00660072 0.358937
107 20 0.536082 0.0013883 0.360035
108 21 0.540684 0.992429 0.362092
109 22 0.545034 0.989128 0.359405
110 23 0.549803 0.987502 0.356801
111 24 0.554215 0.982643 0.353464
112 25 0.571016 0.988025 0.353737
113 26 0.571924 0.000383206 0.35195
114 27 0.567377 0.00579888 0.349534
115 28 0.560264 0.00732313 0.34813
116 29 0.554713 0.00398375 0.345607
117 30 0.556688 0.998129 0.343033
118 31 0.554845 0.995544 0.340295
119 32 0.557539 0.998687 0.336734
120 33 0.554513 0.995004 0.331885
121 34 0.566162 0.991335 0.331063
122 35 0.571469 0.000704049 0.332799
123 36 0.576242 0.994052 0.328672
124 37 0.581129 0.995473 0.325598
125 38 0.583601 0.985259 0.321984
126 39 0.590569 0.971491 0.321808
127 40 0.59388 0.980187 0.326231
128 41 0.58043 0.983645 0.330345
129 42 0.573709 0.978884 0.325871
130 43 0.570731 0.964969 0.322721
131 44 0.575092 0.958682 0.327997
132 45 0.580124 0.952968 0.334525
133 46 0.573206 0.958712 0.339468
134 47 0.570022 0.968732 0.342729
135 48 0.570601 0.980199 0.342083
136 49 0.574087 0.971153 0.338577
137 50 0.572515 0.965709 0.333736
138 51 0.564086 0.974005 0.333721
139 52 0.573591 0.982358 0.335792
140 53 0.58536 0.982398 0.337402
141 54 0.585011 0.970381 0.330761
142 55 0.588334 0.960824 0.324932
143 56 0.583672 0.957414 0.320226
144 57 0.579631 0.958633 0.313139
145 58 0.5624 0.949998 0.312042
146 59 0.566661 0.963783 0.313941
147 60 0.578551 0.975407 0.3154
148 61 0.579405 0.980302 0.310647
149 62 0.575555 0.964677 0.308932
150 63 0.568895 0.949949 0.307515
151 64 0.565073 0.95937 0.304442
152 65 0.563811 0.972429 0.306035
153 66 0.555853 0.963791 0.307909
154 67 0.552662 0.948291 0.308866
155 68 0.549045 0.936635 0.308008
156 69 0.553306 0.929037 0.305504
157 70 0.555869 0.925983 0.301993
158 71 0.561145 0.922553 0.299838
159 72 0.557321 0.91813 0.295784
160 73 0.558973 0.910402 0.29134
161 74 0.569062 0.910395 0.28743
162 75 0.57004 0.916599 0.282791
163 76 0.573806 0.927339 0.277592
164 77 0.583816 0.922621 0.2724
165 78 0.576957 0.915299 0.274452
166 79 0.585762 0.917469 0.276447
167 80 0.593811 0.917619 0.274449
168 81 0.606802 0.911109 0.275106
169 82 0.615596 0.909477 0.277253
170 83 0.611444 0.909212 0.28208
171 84 0.617937 0.904247 0.28152
172 85 0.615878 0.897589 0.279319
173 86 0.604197 0.901158 0.278015
174 87 0.588552 0.90666 0.281928
175 1 0.490867 0.0647887 0.363501
176 2 0.49047 0.0584073 0.360859
177 3 0.480191 0.0518276 0.360308
178 4 0.483918 0.0444319 0.360487
179 5 0.489974 0.0378916 0.361715
180 6 0.501517 0.0290695 0.363024
181 7 0.497844 0.0273941 0.365807
182 8 0.498557 0.0446406 0.363391
183 9 0.508088 0.0568738 0.361085
184 10 0.516565 0.0632411 0.358319
185 11 0.50808 0.0636481 0.356803
186 12 0.497686 0.0595279 0.356252
187 13 0.497068 0.0529881 0.353985
188 14 0.508995 0.0498723 0.353782
189 15 0.52111 0.0445016 0.354809
190 16 0.5276 0.0409588 0.357451
191 17 0.518954 0.0426412 0.35998
192 18 0.506576 0.0427167 0.358238
193 19 0.490781 0.0428887 0.356405
194 20 0.489173 0.0310664 0.357952
195 21 0.500604 0.0286924 0.358531
196 22 0.502337 0.0297637 0.355373
197 23 0.503701 0.0324638 0.352441
198 24 0.504103 0.0308961 0.348455
199 25 0.502161 0.0160579 0.345895
200 26 0.50067 0.00830149 0.342383
201 27 0.492421 0.00393185 0.341042
202 28 0.489219 0.999656 0.33893
203 29 0.488035 0.990475 0.337685
204 30 0.480906 0.987487 0.335616
205 31 0.477967 0.98134 0.333708
206 32 0.481404 0.97767 0.330191
207 33 0.490182 0.977989 0.326006
208 34 0.486444 0.986666 0.323241
209 35 0.49039 0.990967 0.32715
210 36 0.504225 0.987133 0.325965
211 37 0.508798 0.988026 0.322817
212 38 0.518944 0.979289 0.320497
213 39 0.531079 0.970328 0.321939
214 40 0.526861 0.982714 0.325035
215 41 0.511987 0.981001 0.328547
216 42 0.510991 0.970832 0.324562
217 43 0.51709 0.955566 0.322734
218 44 0.519757 0.956025 0.328542
219 45 0.523733 0.958432 0.335384
220 46 0.5131 0.96421 0.339499
221 47 0.510148 0.976348 0.341791
222 48 0.504307 0.985253 0.340233
223 49 0.509523 0.975002 0.337434
224 50 0.512142 0.965584 0.333374
225 51 0.501068 0.968849 0.3326
226 52 0.504999 0.982009 0.333689
227 53 0.514967 0.988744 0.335147
228 54 0.522519 0.972758 0.330118
229 55 0.532739 0.961093 0.325797
230 56 0.533145 0.953969 0.321555
231 57 0.535275 0.957807 0.314584
232 58 0.534675 0.943689 0.310063
233 59 0.524131 0.950495 0.313176
234 60 0.518396 0.962896 0.316621
235 61 0.518667 0.973016 0.312955
236 62 0.531113 0.965027 0.310628
237 63 0.539927 0.95569 0.307538
238 64 0.531224 0.963346 0.30499
239 65 0.518796 0.966132 0.30687
240 66 0.521277 0.953423 0.306344
241 67 0.531654 0.941754 0.305588
242 68 0.545545 0.942488 0.303183
243 69 0.541561 0.947458 0.300048
244 70 0.535909 0.951507 0.297143
245 71 0.533903 0.952666 0.294231
246 72 0.54554 0.95616 0.292109
247 73 0.559105 0.951963 0.289855
248 74 0.55447 0.949723 0.284824
249 75 0.54146 0.957024 0.283219
250 76 0.554077 0.943073 0.281882
251 77 0.560293 0.943036 0.287869
252 78 0.562613 0.95286 0.285873
253 79 0.568594 0.945151 0.284333
254 80 0.571913 0.93886 0.28669
255 81 0.582962 0.929576 0.286207
256 82 0.591592 0.923752 0.285049
257 83 0.600041 0.927988 0.281088
258 84 0.603998 0.924947 0.283335
259 85 0.602691 0.931029 0.285869
260 86 0.592794 0.938167 0.284555
261 87 0.582849 0.945153 0.279084
262 1 0.625774 0.0169169 0.366951
263 2 0.618401 0.00717463 0.365626
264 3 0.62752 0.00952753 0.362946
265 4 0.623259 0.0154225 0.36159
266 5 0.616641 0.0222505 0.36097
267 6 0.604418 0.030781 0.360304
268 7 0.608414 0.0381642 0.361693
269 8 0.609034 0.0209403 0.364096
270 9 0.601261 0.00672698 0.365778
271 10 0.593261 0.995666 0.365544
272 11 0.601745 0.992856 0.364395
273 12 0.611431 0.995558 0.362741
274 13 0.611526 0.994536 0.359625
275 14 0.599332 0.994999 0.359106
276 15 0.586571 0.999352 0.358807
277 16 0.579258 0.0067689 0.359801
278 17 0.58771 0.0125171 0.36171
279 18 0.600295 0.0101282 0.360369
280 19 0.616026 0.0071654 0.358714
281 20 0.616321 0.0187474 0.356876
282 21 0.604705 0.0208388 0.357093
283 22 0.603048 0.0130734 0.355196
284 23 0.602169 0.00471966 0.353814
285 24 0.60022 0.996488 0.350961
286 25 0.586924 0.997117 0.347216
287 26 0.58598 0.00976051 0.345729
288 27 0.592081 0.0175497 0.345075
289 28 0.599059 0.0221197 0.344955
290 29 0.608744 0.0221317 0.344129
291 30 0.614676 0.0184008 0.341829
292 31 0.620701 0.0122624 0.341017
293 32 0.62557 0.0107006 0.337527
294 33 0.626857 0.0146498 0.332617
295 34 0.63613 0.0078284 0.330882
296 35 0.632875 0.00455203 0.335138
297 36 0.622544 0.995435 0.332482
298 37 0.626611 0.988484 0.330179
299 38 0.623724 0.988349 0.325266
300 39 0.611893 0.985548 0.322177
301 40 0.609206 0.983055 0.327432
302 41 0.610157 0.995761 0.331935
303 42 0.616219 0.00161382 0.327511
304 43 0.614486 0.00819711 0.322433
305 44 0.599079 0.00929249 0.325294
306 45 0.581438 0.0108906 0.329113
307 46 0.579579 0.0170933 0.334459
308 47 0.580576 0.0142993 0.339112
309 48 0.590474 0.0113336 0.340887
310 49 0.589569 0.0111724 0.336165
311 50 0.594856 0.0121302 0.3313
312 51 0.6041 0.0168068 0.333169
313 52 0.602732 0.00628646 0.336235
314 53 0.595483 0.996188 0.33718
315 54 0.598211 0.99738 0.329524
316 55 0.600142 0.994882 0.322899
317 56 0.606611 0.999723 0.319177
318 57 0.621671 0.999011 0.314576
319 58 0.62889 0.0127442 0.310603
320 59 0.631059 0.00873691 0.315572
321 60 0.630323 0.998091 0.320041
322 61 0.638964 0.987742 0.317846
323 62 0.634331 0.993049 0.313013
324 63 0.632237 0.000448329 0.308223
325 64 0.644774 0.995039 0.308349
326 65 0.64999 0.992875 0.312593
327 66 0.64768 0.00530565 0.311615
328 67 0.641624 0.0164575 0.308668
329 68 0.641352 0.0213131 0.304849
330 69 0.638359 0.0162377 0.30157
331 70 0.636423 0.00745442 0.299344
332 71 0.63464 0.00113655 0.297446
333 72 0.624341 0.992441 0.297916
334 73 0.620602 0.977545 0.296533
335 74 0.619335 0.968228 0.300749
336 75 0.619556 0.973415 0.305606
337 76 0.631168 0.978948 0.310519
338 77 0.644349 0.988528 0.307096
339 78 0.633678 0.99357 0.307186
340 79 0.632552 0.983375 0.306013
341 80 0.640186 0.981344 0.303915
342 81 0.638745 0.972873 0.300043
343 82 0.635105 0.967573 0.297084
344 83 0.620048 0.965717 0.296446
345 84 0.62293 0.968371 0.29404
346 85 0.629984 0.975034 0.294268
347 86 0.627287 0.979234 0.298248
348 87 0.614197 0.97464 0.303311
349 1 0.623757 0.000933925 0.368943
350 2 0.632579 0.000477217 0.36752
351 3 0.621362 0.994916 0.367468
352 4 0.624643 0.98733 0.367134
353 5 0.630547 0.979969 0.3678
354 6 0.641828 0.970221 0.368396
355 7 0.638671 0.967534 0.371171
356 8 0.639907 0.985628 0.369625
357 9 0.649364 0.998558 0.367692
358 10 0.659086 0.00429497 0.365057
359 11 0.650712 0.00653983 0.363739
360 12 0.640027 0.00380283 0.363294
361 13 0.637833 0.998873 0.360722
362 14 0.649142 0.99424 0.360132
363 15 0.660644 0.987143 0.360732
364 16 0.666979 0.981568 0.363025
365 17 0.659203 0.983456 0.365797
366 18 0.646684 0.985578 0.364302
367 19 0.630708 0.987931 0.362883
368 20 0.628487 0.9756 0.363817
369 21 0.639727 0.972094 0.36391
370 22 0.640795 0.974722 0.360813
371 23 0.642021 0.978834 0.358065
372 24 0.642699 0.983082 0.354323
373 25 0.655319 0.995308 0.353051
374 26 0.664299 0.990218 0.350403
375 27 0.672525 0.992189 0.348533
376 28 0.679374 0.988233 0.347582
377 29 0.682689 0.982257 0.345149
378 30 0.67981 0.974002 0.343604
379 31 0.674578 0.968389 0.342121
380 32 0.665436 0.967373 0.339796
381 33 0.652275 0.964208 0.337447
382 34 0.648164 0.968457 0.333889
383 35 0.655026 0.977578 0.336132
384 36 0.656198 0.979725 0.331472
385 37 0.648793 0.983387 0.329276
386 38 0.646131 0.981113 0.324432
387 39 0.654955 0.978003 0.320275
388 40 0.662026 0.985784 0.324358
389 41 0.666436 0.976673 0.329412
390 42 0.655636 0.968781 0.326582
391 43 0.656062 0.95745 0.322407
392 44 0.673354 0.958752 0.323621
393 45 0.69237 0.959609 0.326673
394 46 0.696096 0.957625 0.332289
395 47 0.695443 0.962263 0.336815
396 48 0.692025 0.973249 0.337587
397 49 0.688624 0.967632 0.333406
398 50 0.680198 0.962212 0.329392
399 51 0.672234 0.961206 0.332246
400 52 0.676259 0.974214 0.33356
401 53 0.684696 0.983414 0.33264
402 54 0.676295 0.974188 0.326091
403 55 0.668589 0.969877 0.32001
404 56 0.656562 0.964474 0.317507
405 57 0.636996 0.959708 0.315224
406 58 0.634481 0.940404 0.315909
407 59 0.632878 0.952525 0.319015
408 60 0.633606 0.969434 0.320115
409 61 0.61919 0.970337 0.318505
410 62 0.622483 0.958332 0.314736
411 63 0.625376 0.943902 0.31205
412 64 0.611851 0.945784 0.312686
413 65 0.608142 0.952623 0.316488
414 66 0.614871 0.941602 0.317212
415 67 0.625124 0.930823 0.315311
416 68 0.627218 0.919471 0.314177
417 69 0.62683 0.917807 0.310305
418 70 0.62844 0.922644 0.306943
419 71 0.628638 0.930287 0.305223
420 72 0.639845 0.93738 0.306865
421 73 0.650186 0.932558 0.310484
422 74 0.6556 0.918165 0.311504
423 75 0.669723 0.915159 0.313267
424 76 0.658962 0.930525 0.310981
425 77 0.65142 0.914129 0.313223
426 78 0.648099 0.925425 0.313341
427 79 0.641551 0.920334 0.311052
428 80 0.646378 0.913374 0.30926
429 81 0.648594 0.913134 0.304416
430 82 0.644205 0.911876 0.301093
431 83 0.629939 0.917232 0.300705
432 84 0.634132 0.918458 0.298365
433 85 0.642588 0.923167 0.298865
434 86 0.642509 0.924821 0.303082
435 87 0.62815 0.927118 0.307836
436 1 0.565755 0.964702 0.373877
437 2 0.571557 0.960479 0.37168
438 3 0.575977 0.950824 0.373036
439 4 0.583322 0.95101 0.371818
440 5 0.592228 0.954529 0.371815
441 6 0.605368 0.961441 0.371064
442 7 0.60825 0.959833 0.373952
443 8 0.59094 0.966022 0.37279
444 9 0.581926 0.978196 0.370325
445 10 0.577118 0.986315 0.36707
446 11 0.571816 0.978342 0.36688
447 12 0.571539 0.967464 0.367497
448 13 0.573785 0.96181 0.365079
449 14 0.580416 0.970115 0.363084
450 15 0.590514 0.978516 0.362044
451 16 0.599053 0.984268 0.363273
452 17 0.597308 0.979939 0.366794
453 18 0.59061 0.968243 0.36694
454 19 0.582482 0.9536 0.367246
455 20 0.593676 0.947834 0.368155
456 21 0.600692 0.956816 0.367151
457 22 0.597347 0.956225 0.36413
458 23 0.592808 0.956236 0.361419
459 24 0.594485 0.956167 0.357413
460 25 0.605456 0.967169 0.354515
461 26 0.615319 0.966015 0.351535
462 27 0.619982 0.959012 0.349642
463 28 0.62028 0.951292 0.348552
464 29 0.614442 0.943788 0.347503
465 30 0.607847 0.941521 0.345174
466 31 0.606885 0.938633 0.342392
467 32 0.603109 0.944207 0.339226
468 33 0.607389 0.942653 0.33438
469 34 0.598511 0.934565 0.332809
470 35 0.593476 0.940413 0.336514
471 36 0.597757 0.953461 0.333869
472 37 0.595231 0.951681 0.330507
473 38 0.605017 0.952358 0.326665
474 39 0.614147 0.96301 0.324494
475 40 0.603175 0.968462 0.328106
476 41 0.604252 0.964151 0.334086
477 42 0.61355 0.954415 0.331349
478 43 0.628426 0.952077 0.328868
479 44 0.630155 0.967241 0.331828
480 45 0.630548 0.984033 0.336079
481 46 0.625854 0.985928 0.341545
482 47 0.619113 0.982044 0.345548
483 48 0.60824 0.977624 0.345467
484 49 0.615819 0.978041 0.341451
485 50 0.62314 0.971626 0.337383
486 51 0.620096 0.961792 0.339284
487 52 0.607419 0.967751 0.339914
488 53 0.601074 0.978658 0.339193
489 54 0.614228 0.973526 0.333011
490 55 0.623546 0.97019 0.327138
491 56 0.629868 0.958375 0.324416
492 57 0.619031 0.939943 0.323165
493 58 0.624594 0.924116 0.319573
494 59 0.627785 0.929788 0.324286
495 60 0.624848 0.940353 0.328716
496 61 0.61279 0.932037 0.329969
497 62 0.609989 0.929473 0.324635
498 63 0.609504 0.922996 0.319762
499 64 0.60332 0.91507 0.322899
500 65 0.608534 0.915265 0.327172
501 66 0.617085 0.911451 0.324194
502 67 0.620515 0.910066 0.319166
503 68 0.617593 0.905465 0.315273
504 69 0.607635 0.907979 0.313434
505 70 0.597665 0.913335 0.313157
506 71 0.591073 0.918411 0.31451
507 72 0.583649 0.90792 0.316482
508 73 0.578073 0.894801 0.314282
509 74 0.565835 0.885744 0.314104
510 75 0.559586 0.876201 0.310714
511 76 0.562648 0.893171 0.307677
512 77 0.575144 0.906436 0.30551
513 78 0.565185 0.904091 0.303577
514 79 0.570905 0.894884 0.303876
515 80 0.580794 0.896857 0.303549
516 81 0.588756 0.888234 0.300619
517 82 0.589374 0.879739 0.298293
518 83 0.577811 0.876892 0.295142
519 84 0.585186 0.876406 0.293882
520 85 0.590787 0.88446 0.294262
521 86 0.582982 0.891763 0.296626
522 87 0.56291 0.893239 0.297999
523 1 0.681334 0.0319199 0.359182
524 2 0.686453 0.0358073 0.362579
525 3 0.687552 0.0459089 0.360315
526 4 0.679298 0.0466805 0.359937
527 5 0.669823 0.0462716 0.360568
528 6 0.655625 0.0422124 0.361506
529 7 0.654246 0.049653 0.363331
530 8 0.669591 0.0389679 0.363808
531 9 0.676205 0.0233618 0.364514
532 10 0.677334 0.00982153 0.3639
533 11 0.683629 0.0137396 0.361887
534 12 0.686493 0.0226256 0.359891
535 13 0.683721 0.0226762 0.356896
536 14 0.674321 0.0147966 0.357379
537 15 0.662421 0.0094611 0.358659
538 16 0.654041 0.00987713 0.360963
539 17 0.658834 0.0192301 0.362593
540 18 0.66717 0.0261657 0.359946
541 19 0.677492 0.0357285 0.356953
542 20 0.667786 0.0439295 0.356329
543 21 0.659127 0.0367743 0.357503
544 22 0.661403 0.0304529 0.355151
545 23 0.664955 0.0240242 0.35322
546 24 0.66911 0.019745 0.349709
547 25 0.671207 0.0143888 0.345315
548 26 0.676568 0.00352102 0.343413
549 27 0.680745 0.00336694 0.340348
550 28 0.680929 0.998949 0.337989
551 29 0.68021 0.00109405 0.334812
552 30 0.683879 0.00287287 0.331869
553 31 0.683668 0.00708097 0.32928
554 32 0.68386 0.017956 0.327725
555 33 0.678502 0.0323908 0.327191
556 34 0.686005 0.0421118 0.328171
557 35 0.689072 0.0355098 0.331725
558 36 0.689835 0.0240736 0.328554
559 37 0.693648 0.0235552 0.325277
560 38 0.685553 0.0212411 0.321118
561 39 0.67607 0.00985523 0.319466
562 40 0.684293 0.00663392 0.323901
563 41 0.680726 0.0155079 0.329115
564 42 0.674311 0.0233611 0.325113
565 43 0.660808 0.0229377 0.321645
566 44 0.656294 0.0115474 0.325875
567 45 0.652519 0.999786 0.331566
568 46 0.653096 0.00515741 0.337022
569 47 0.661192 0.00740151 0.340866
570 48 0.670691 0.0141618 0.340884
571 49 0.665349 0.00939686 0.336769
572 50 0.660771 0.0122506 0.331894
573 51 0.664498 0.0230416 0.332893
574 52 0.675735 0.0165766 0.334782
575 53 0.680591 0.00488376 0.335437
576 54 0.670907 0.0055981 0.328385
577 55 0.664109 0.00327222 0.322096
578 56 0.661748 0.0124076 0.318374
579 57 0.666258 0.0177515 0.311702
580 58 0.651076 0.0274709 0.309063
581 59 0.662353 0.0312044 0.312442
582 60 0.67733 0.0291304 0.315075
583 61 0.685895 0.0278849 0.310781
584 62 0.672256 0.0249562 0.308009
585 63 0.659009 0.0239287 0.305018
586 64 0.668468 0.032507 0.303212
587 65 0.676509 0.0397165 0.30613
588 66 0.663751 0.0416276 0.306771
589 67 0.649528 0.0378484 0.305712
590 68 0.640136 0.0376505 0.303317
591 69 0.639253 0.0305238 0.30032
592 70 0.642369 0.0219052 0.298191
593 71 0.64797 0.015294 0.297185
594 72 0.657382 0.0126185 0.30045
595 73 0.672294 0.0148306 0.301774
596 74 0.682605 0.0232368 0.29915
597 75 0.696965 0.0216132 0.297583
598 76 0.677539 0.0187131 0.298363
599 77 0.685947 0.00164125 0.297317
600 78 0.682954 0.0106679 0.295018
601 79 0.673804 0.00590483 0.296217
602 80 0.67482 0.995851 0.296098
603 81 0.66823 0.986135 0.293061
604 82 0.659953 0.979771 0.291894
605 83 0.64653 0.981903 0.294196
606 84 0.644807 0.981141 0.291538
607 85 0.650976 0.986043 0.289573
608 86 0.656437 0.993757 0.29244
609 87 0.654395 0.999411 0.298935
610 1 0.702805 0.0347489 0.363299
611 2 0.700864 0.0392744 0.359903
612 3 0.698531 0.0278159 0.358348
613 4 0.706468 0.0258562 0.357762
614 5 0.716181 0.0265357 0.357655
615 6 0.730642 0.0306473 0.357198
616 7 0.733082 0.0261399 0.359788
617 8 0.718028 0.037208 0.359428
618 9 0.710974 0.0521938 0.358225
619 10 0.707215 0.0630356 0.355745
620 11 0.70058 0.0563328 0.355195
621 12 0.697607 0.0454147 0.355092
622 13 0.698712 0.0412464 0.3523
623 14 0.706581 0.0493645 0.350706
624 15 0.717917 0.0565332 0.349907
625 16 0.727591 0.0599029 0.351146
626 17 0.725791 0.0538067 0.35436
627 18 0.717176 0.0435236 0.353947
628 19 0.706791 0.0305143 0.353316
629 20 0.716719 0.0224682 0.353499
630 21 0.72509 0.0307171 0.353011
631 22 0.72129 0.0329252 0.35012
632 23 0.716218 0.0356284 0.347665
633 24 0.714131 0.0363156 0.343712
634 25 0.729199 0.0413981 0.340883
635 26 0.731664 0.0539673 0.339775
636 27 0.729675 0.0611751 0.337502
637 28 0.732141 0.0648607 0.335154
638 29 0.73398 0.0634482 0.331934
639 30 0.73829 0.05655 0.330056
640 31 0.742223 0.0485756 0.329703
641 32 0.738742 0.0384734 0.328262
642 33 0.738404 0.0245979 0.326225
643 34 0.726782 0.0217759 0.325309
644 35 0.726935 0.0333198 0.327288
645 36 0.717168 0.0355318 0.323978
646 37 0.708738 0.0297752 0.323018
647 38 0.701331 0.027705 0.318734
648 39 0.701247 0.0355272 0.31417
649 40 0.70317 0.0438851 0.318663
650 41 0.720001 0.0439129 0.321068
651 42 0.717906 0.0311426 0.318063
652 43 0.719131 0.0266169 0.312661
653 44 0.726871 0.0426299 0.312778
654 45 0.7356 0.0618098 0.313657
655 46 0.747483 0.0666701 0.317515
656 47 0.747724 0.0733345 0.321691
657 48 0.745533 0.0676453 0.32497
658 49 0.740573 0.0624093 0.320898
659 50 0.735867 0.0519092 0.317362
660 51 0.739729 0.0445703 0.320135
661 52 0.732793 0.0528477 0.323141
662 53 0.726204 0.0637927 0.323403
663 54 0.719792 0.0517239 0.317151
664 55 0.71107 0.0439453 0.311674
665 56 0.708691 0.0316854 0.30928
666 57 0.695441 0.0164031 0.307553
667 58 0.703495 0.00101921 0.304475
668 59 0.70269 0.00554649 0.309329
669 60 0.697085 0.0142248 0.313751
670 61 0.682023 0.0105839 0.313143
671 62 0.685349 0.00598728 0.308041
672 63 0.688916 0.999764 0.303178
673 64 0.680237 0.991518 0.305475
674 65 0.681497 0.991331 0.310036
675 66 0.692499 0.987906 0.307954
676 67 0.700321 0.987789 0.303614
677 68 0.703993 0.981918 0.300275
678 69 0.698879 0.983256 0.296889
679 70 0.696751 0.985808 0.293357
680 71 0.692717 0.985497 0.290681
681 72 0.700768 0.989422 0.287276
682 73 0.702418 0.994384 0.282407
683 74 0.690746 0.989617 0.279342
684 75 0.684456 0.994152 0.27502
685 76 0.678794 0.985308 0.269695
686 77 0.68965 0.996054 0.273775
687 78 0.681241 0.987891 0.273516
688 79 0.680403 0.995514 0.2709
689 80 0.681183 0.0046998 0.272331
690 81 0.670686 0.015036 0.272346
691 82 0.660817 0.0199001 0.272719
692 83 0.648573 0.0171235 0.269822
693 84 0.646274 0.0165864 0.27245
694 85 0.652454 0.011212 0.274295
695 86 0.659809 0.00620352 0.271178
696 87 0.664678 0.00569067 0.26457
697 1 0.681835 0.96867 0.369615
698 2 0.691338 0.972171 0.368395
699 3 0.698912 0.963295 0.367082
700 4 0.703719 0.968366 0.365602
701 5 0.708547 0.976559 0.365077
702 6 0.713778 0.990328 0.364031
703 7 0.72052 0.989596 0.36617
704 8 0.702708 0.984761 0.367271
705 9 0.686001 0.987971 0.367249
706 10 0.673705 0.991693 0.365647
707 11 0.674463 0.98233 0.365019
708 12 0.681142 0.973586 0.364456
709 13 0.68312 0.971557 0.361462
710 14 0.680649 0.982801 0.35996
711 15 0.681524 0.99616 0.359127
712 16 0.68545 0.00584403 0.360155
713 17 0.69103 0.000608555 0.36303
714 18 0.69361 0.987498 0.36235
715 19 0.696858 0.971163 0.361652
716 20 0.709048 0.973944 0.360755
717 21 0.707432 0.985576 0.360273
718 22 0.701312 0.983768 0.357817
719 23 0.694311 0.981461 0.355894
720 24 0.688922 0.978597 0.352422
721 25 0.698988 0.977223 0.348082
722 26 0.70641 0.986054 0.345847
723 27 0.712462 0.984634 0.343179
724 28 0.720042 0.986967 0.34227
725 29 0.724563 0.990232 0.339528
726 30 0.729548 0.985562 0.337092
727 31 0.729257 0.979185 0.335001
728 32 0.720671 0.976347 0.332465
729 33 0.721433 0.977936 0.32745
730 34 0.722013 0.966611 0.325557
731 35 0.716176 0.965171 0.329373
732 36 0.706148 0.979116 0.328642
733 37 0.700653 0.975433 0.325894
734 38 0.699166 0.981319 0.32134
735 39 0.696168 0.99512 0.319376
736 40 0.691353 0.992452 0.324409
737 41 0.704072 0.991664 0.328855
738 42 0.711039 0.989739 0.324224
739 43 0.716494 0.998309 0.319656
740 44 0.713847 0.0106832 0.323758
741 45 0.709022 0.0245821 0.328809
742 46 0.714596 0.0242602 0.334232
743 47 0.712582 0.0194218 0.33862
744 48 0.709391 0.00853126 0.339533
745 49 0.711683 0.0118084 0.335018
746 50 0.714613 0.0110146 0.329946
747 51 0.721659 0.00230165 0.331187
748 52 0.710938 0.998118 0.333866
749 53 0.699111 0.00137944 0.335065
750 54 0.701706 0.00497339 0.327503
751 55 0.700677 0.00880988 0.320933
752 56 0.70448 0.0024304 0.316373
753 57 0.705754 0.984766 0.31209
754 58 0.716126 0.988133 0.306788
755 59 0.719758 0.985492 0.311696
756 60 0.71561 0.981342 0.317039
757 61 0.714624 0.966737 0.31574
758 62 0.70977 0.971151 0.310737
759 63 0.708104 0.976069 0.305538
760 64 0.713751 0.963616 0.305573
761 65 0.721092 0.960444 0.309373
762 66 0.725798 0.970537 0.307147
763 67 0.723816 0.981511 0.303512
764 68 0.720478 0.985763 0.299494
765 69 0.713208 0.979593 0.297357
766 70 0.708038 0.974918 0.294427
767 71 0.700317 0.970559 0.293465
768 72 0.704414 0.970948 0.289184
769 73 0.704095 0.971416 0.284143
770 74 0.699501 0.959464 0.281334
771 75 0.688581 0.953995 0.278361
772 76 0.683674 0.955581 0.272218
773 77 0.671873 0.94247 0.269648
774 78 0.673728 0.945267 0.273373
775 79 0.668999 0.953837 0.271777
776 80 0.661646 0.950779 0.269734
777 81 0.646895 0.951827 0.270472
778 82 0.638172 0.950709 0.272685
779 83 0.640045 0.953917 0.277565
780 84 0.633528 0.958852 0.276978
781 85 0.633773 0.9622 0.273925
782 86 0.646586 0.962163 0.273406
783 87 0.661447 0.960924 0.278016
784 1 0.699906 0.107248 0.355058
785 2 0.691394 0.10159 0.355781
786 3 0.681436 0.107431 0.354259
787 4 0.67653 0.100757 0.354173
788 5 0.672985 0.092518 0.355351
789 6 0.66975 0.0785596 0.35689
790 7 0.665088 0.0817559 0.359359
791 8 0.68183 0.0884037 0.357674
792 9 0.698086 0.0863198 0.356245
793 10 0.70909 0.081599 0.354126
794 11 0.706029 0.0888533 0.352306
795 12 0.697632 0.0954781 0.351219
796 13 0.693054 0.0926704 0.348631
797 14 0.696454 0.0808112 0.348794
798 15 0.697457 0.0678195 0.350077
799 16 0.696126 0.0606202 0.352757
800 17 0.691862 0.0691074 0.354976
801 18 0.686818 0.0797352 0.352815
802 19 0.680177 0.0932661 0.350392
803 20 0.668458 0.0890932 0.351394
804 21 0.671666 0.0781134 0.352381
805 22 0.674904 0.0765639 0.349375
806 23 0.679117 0.0762722 0.346618
807 24 0.682808 0.0749046 0.34286
808 25 0.699625 0.0685848 0.342916
809 26 0.697378 0.0573992 0.340534
810 27 0.688979 0.0553284 0.338752
811 28 0.685772 0.0491731 0.337185
812 29 0.677465 0.0479458 0.335388
813 30 0.674593 0.0504416 0.332417
814 31 0.672115 0.0527765 0.329735
815 32 0.666733 0.0607549 0.327713
816 33 0.667253 0.0739545 0.325232
817 34 0.678179 0.0801893 0.325142
818 35 0.674627 0.0804057 0.32926
819 36 0.658542 0.0810759 0.328415
820 37 0.657997 0.08287 0.324972
821 38 0.661261 0.0748386 0.320922
822 39 0.668992 0.061903 0.319634
823 40 0.672427 0.0688448 0.324341
824 41 0.661076 0.0690006 0.32912
825 42 0.65348 0.0653781 0.324673
826 43 0.649481 0.0524765 0.321284
827 44 0.65674 0.0447549 0.326007
828 45 0.662977 0.0382254 0.332357
829 46 0.656423 0.0424861 0.337511
830 47 0.649732 0.0515833 0.34051
831 48 0.653952 0.0625262 0.340753
832 49 0.657669 0.0552025 0.336867
833 50 0.65531 0.0509974 0.331914
834 51 0.646965 0.0592798 0.332302
835 52 0.656926 0.0671 0.334425
836 53 0.669135 0.0664331 0.335691
837 54 0.667074 0.056234 0.328708
838 55 0.66804 0.0488367 0.322427
839 56 0.662425 0.046918 0.317731
840 57 0.65679 0.0530468 0.311107
841 58 0.640585 0.0465214 0.308175
842 59 0.6434 0.056275 0.312084
843 60 0.653447 0.0661228 0.315312
844 61 0.654331 0.0762712 0.311573
845 62 0.653758 0.0639194 0.307997
846 63 0.64762 0.0525464 0.304478
847 64 0.643611 0.064209 0.302752
848 65 0.643119 0.0749637 0.305736
849 66 0.634955 0.0653391 0.306571
850 67 0.629072 0.0509823 0.305609
851 68 0.625433 0.0448151 0.302268
852 69 0.631094 0.0421137 0.299019
853 70 0.639359 0.0372582 0.296968
854 71 0.648091 0.0364711 0.296181
855 72 0.655653 0.0380783 0.292511
856 73 0.664667 0.0316438 0.28883
857 74 0.678844 0.0329975 0.287102
858 75 0.690572 0.0333792 0.283963
859 76 0.70505 0.0209165 0.284641
860 77 0.69008 0.0281451 0.281287
861 78 0.700815 0.023245 0.281237
862 79 0.693292 0.0165156 0.282691
863 80 0.686114 0.0158592 0.280322
864 81 0.676621 0.00478519 0.280923
865 82 0.669044 0.998104 0.282369
866 83 0.66282 0.999844 0.286939
867 84 0.657025 0.99861 0.285027
868 85 0.657903 0.00480464 0.282482
869 86 0.667989 0.0119544 0.28377
870 87 0.680427 0.0157349 0.289034
871 1 0.68639 0.118654 0.356068
872 2 0.685033 0.113657 0.352562
873 3 0.693671 0.108247 0.350159
874 4 0.698278 0.115104 0.349805
875 5 0.701772 0.124048 0.350274